data_IRMOF-1

_audit_creation_method RASPA-1.0
_audit_creation_date 2021-4-10
_audit_author_name 'Shivam Parashar'

_citation_author_name        'M. Eddaoudi, J. Kim, N. Rosi, D. Vodak, J. Wachter, M. O. Keeffe, and O.M. Yaghi'
_citation_title              'Systematic design of pore size and functionality in isoreticular MOFs and their application in methane storage'
_citation_journal_abbrev     'Science'
_citation_journal_volume     295
_citation_page_first         469
_citation_page_last          472
_citation_year               2002

_cell_length_a    25.832
_cell_length_b    25.832
_cell_length_c    25.832
_cell_angle_alpha 90
_cell_angle_beta  90
_cell_angle_gamma 90
_cell_volume      17237.5

_symmetry_cell_setting          cubic
_symmetry_space_group_name_Hall 'P 1'
_symmetry_space_group_name_H-M  'P 1'
_symmetry_Int_Tables_number     1

_symmetry_equiv_pos_as_xyz 'x,y,z'

loop_
_atom_site_label
_atom_site_type_symbol
_atom_site_fract_x
_atom_site_fract_y
_atom_site_fract_z
_atom_site_charge
Zn1      Zn     0.293401939721     0.206280601642     0.206156423473    -0.6        
Zn1      Zn     0.793401939721     0.293719398358     0.206156423473    -0.6        
Zn1      Zn     0.706598060177     0.793719398351     0.206156423465    -0.6        
Zn1      Zn     0.206598060177     0.706280601649     0.206156423465    -0.6        
Zn1      Zn     0.293401939823     0.793719398351     0.793843576535    -0.6        
Zn1      Zn     0.206598060279     0.293719398358     0.793843576527    -0.6        
Zn1      Zn     0.706598060279     0.206280601642     0.793843576527    -0.6        
Zn1      Zn     0.793401939823     0.706280601649     0.793843576535    -0.6        
Zn1      Zn     0.206598774926     0.293717862133     0.206156846818    -0.6        
Zn1      Zn     0.706598774926     0.206282137867     0.206156846818    -0.6        
Zn1      Zn     0.793401224973     0.706282137860     0.206156846826    -0.6        
Zn1      Zn     0.293401224973     0.793717862140     0.206156846826    -0.6        
Zn1      Zn     0.206598775027     0.706282137860     0.793843153174    -0.6        
Zn1      Zn     0.293401225074     0.206282137867     0.793843153182    -0.6        
Zn1      Zn     0.793401225074     0.293717862133     0.793843153182    -0.6        
Zn1      Zn     0.706598775027     0.793717862140     0.793843153174    -0.6        
Zn1      Zn     0.206281871358     0.206597409941     0.293843327527    -0.6        
Zn1      Zn     0.206281871458     0.793402590066     0.706156672485    -0.6        
Zn1      Zn     0.206280868160     0.206599425270     0.706156597768    -0.6        
Zn1      Zn     0.793718128642     0.206597409942     0.706156672473    -0.6        
Zn1      Zn     0.793719131940     0.793400574722     0.706156597757    -0.6        
Zn1      Zn     0.793718128542     0.793402590066     0.293843327515    -0.6        
Zn1      Zn     0.206280868060     0.793400574722     0.293843402243    -0.6        
Zn1      Zn     0.793719131840     0.206599425270     0.293843402232    -0.6        
Zn1      Zn     0.293719131940     0.706599425278     0.706156597757    -0.6        
Zn1      Zn     0.706280868160     0.293400574730     0.706156597768    -0.6        
Zn1      Zn     0.293719131840     0.293400574730     0.293843402232    -0.6        
Zn1      Zn     0.706280868060     0.706599425278     0.293843402243    -0.6        
Zn1      Zn     0.706281871458     0.706597409934     0.706156672485    -0.6        
Zn1      Zn     0.293718128642     0.293402590059     0.706156672473    -0.6        
Zn1      Zn     0.293718128542     0.706597409934     0.293843327515    -0.6        
Zn1      Zn     0.706281871358     0.293402590058     0.293843327527    -0.6        
O1       O      0.250000432952     0.249999102191     0.250000000008     0.475      
O1       O      0.750000432952     0.250000897809     0.250000000008     0.475      
O1       O      0.749999566946     0.750000897808     0.250000000008     0.475      
O1       O      0.249999566946     0.749999102192     0.250000000008     0.475      
O1       O      0.250000433054     0.750000897808     0.749999999992     0.475      
O1       O      0.249999567048     0.250000897809     0.749999999992     0.475      
O1       O      0.749999567048     0.249999102191     0.749999999992     0.475      
O1       O      0.750000433054     0.749999102192     0.749999999992     0.475      
O2       O      0.272235464770     0.213260344423     0.135076687950     0.125      
O2       O      0.772235464770     0.286739655577     0.135076687950     0.125      
O2       O      0.727764535112     0.786739655536     0.135076687941     0.125      
O2       O      0.227764535112     0.713260344464     0.135076687942     0.125      
O2       O      0.272235464888     0.786739655536     0.864923312059     0.125      
O2       O      0.227764535230     0.286739655577     0.864923312050     0.125      
O2       O      0.727764535230     0.213260344423     0.864923312050     0.125      
O2       O      0.772235464888     0.713260344464     0.864923312058     0.125      
O2       O      0.135097251141     0.273770383786     0.212017887477     0.125      
O2       O      0.713484760479     0.135066313600     0.226782147089     0.125      
O2       O      0.864902748753     0.726229616237     0.212017887452     0.125      
O2       O      0.286515239452     0.864933686400     0.226782147131     0.125      
O2       O      0.135097251247     0.726229616237     0.787982112548     0.125      
O2       O      0.286515239521     0.135066313600     0.773217852911     0.125      
O2       O      0.864902748859     0.273770383786     0.787982112523     0.125      
O2       O      0.713484760548     0.864933686400     0.773217852869     0.125      
O2       O      0.226229237845     0.135095885115     0.287981925242     0.125      
O2       O      0.226229237977     0.864904114886     0.712018074737     0.125      
O2       O      0.135065029667     0.213485186675     0.726781910751     0.125      
O2       O      0.773770762155     0.135095885115     0.712018074758     0.125      
O2       O      0.864934970440     0.786514813288     0.726781910711     0.125      
O2       O      0.773770762023     0.864904114886     0.287981925263     0.125      
O2       O      0.135065029560     0.786514813288     0.273218089289     0.125      
O2       O      0.864934970333     0.213485186675     0.273218089249     0.125      
O2       O      0.727764980342     0.786738812981     0.864923020395     0.125      
O2       O      0.227764980342     0.713261187019     0.864923020395     0.125      
O2       O      0.272235019776     0.213261187060     0.864923020403     0.125      
O2       O      0.772235019776     0.286738812940     0.864923020403     0.125      
O2       O      0.727764980224     0.213261187060     0.135076979597     0.125      
O2       O      0.772235019658     0.713261187019     0.135076979605     0.125      
O2       O      0.272235019658     0.786738812981     0.135076979605     0.125      
O2       O      0.227764980224     0.286738812940     0.135076979597     0.125      
O2       O      0.864903491655     0.726228051316     0.787982648209     0.125      
O2       O      0.286515999880     0.864935387541     0.773218813655     0.125      
O2       O      0.135096508452     0.273771948661     0.787982648234     0.125      
O2       O      0.713484000189     0.135064612459     0.773218813613     0.125      
O2       O      0.864903491548     0.273771948661     0.212017351766     0.125      
O2       O      0.713484000120     0.864935387541     0.226781186345     0.125      
O2       O      0.135096508345     0.726228051316     0.212017351791     0.125      
O2       O      0.286515999811     0.135064612459     0.226781186387     0.125      
O2       O      0.773771570296     0.864902125496     0.712017164262     0.125      
O2       O      0.773771570163     0.135097874504     0.287982835759     0.125      
O2       O      0.864934103479     0.786516426218     0.273218577183     0.125      
O2       O      0.226228429704     0.864902125496     0.287982835738     0.125      
O2       O      0.135065896415     0.213483573820     0.273218577222     0.125      
O2       O      0.226228429837     0.135097874504     0.712017164241     0.125      
O2       O      0.864934103586     0.213483573820     0.726781422778     0.125      
O2       O      0.135065896521     0.786516426218     0.726781422817     0.125      
O2       O      0.286739913610     0.727766005481     0.635076852254     0.125      
O2       O      0.786739913610     0.772233994519     0.635076852254     0.125      
O2       O      0.713260086442     0.272233994503     0.635076852269     0.125      
O2       O      0.213260086442     0.227766005497     0.635076852269     0.125      
O2       O      0.286739913558     0.272233994503     0.364923147731     0.125      
O2       O      0.213260086390     0.772233994519     0.364923147746     0.125      
O2       O      0.713260086390     0.727766005481     0.364923147746     0.125      
O2       O      0.786739913558     0.227766005497     0.364923147731     0.125      
O2       O      0.726229237977     0.635095885114     0.712018074737     0.125      
O2       O      0.273770762155     0.364904114885     0.712018074758     0.125      
O2       O      0.273770762023     0.635095885114     0.287981925263     0.125      
O2       O      0.726229237845     0.364904114885     0.287981925242     0.125      
O2       O      0.213484760548     0.635066313600     0.773217852869     0.125      
O2       O      0.213484760479     0.364933686400     0.226782147089     0.125      
O2       O      0.786515239452     0.635066313600     0.226782147131     0.125      
O2       O      0.786515239521     0.364933686400     0.773217852911     0.125      
O2       O      0.713261444931     0.272236489861     0.364923184736     0.125      
O2       O      0.213261444931     0.227763510139     0.364923184736     0.125      
O2       O      0.286738555017     0.727763510155     0.364923184720     0.125      
O2       O      0.786738555017     0.772236489845     0.364923184720     0.125      
O2       O      0.713261444983     0.727763510155     0.635076815280     0.125      
O2       O      0.786738555069     0.227763510139     0.635076815264     0.125      
O2       O      0.286738555069     0.272236489861     0.635076815264     0.125      
O2       O      0.213261444983     0.772236489845     0.635076815280     0.125      
O2       O      0.273771570163     0.364902125496     0.287982835759     0.125      
O2       O      0.726228429704     0.635097874504     0.287982835738     0.125      
O2       O      0.726228429837     0.364902125496     0.712017164241     0.125      
O2       O      0.273771570296     0.635097874504     0.712017164262     0.125      
O2       O      0.786515999811     0.364935387541     0.226781186387     0.125      
O2       O      0.786515999880     0.635064612459     0.773218813655     0.125      
O2       O      0.213484000189     0.364935387541     0.773218813613     0.125      
O2       O      0.213484000120     0.635064612459     0.226781186345     0.125      
O2       O      0.635065029667     0.286514813325     0.726781910751     0.125      
O2       O      0.364934970440     0.713485186712     0.726781910711     0.125      
O2       O      0.635065029560     0.713485186712     0.273218089289     0.125      
O2       O      0.364934970333     0.286514813325     0.273218089249     0.125      
O2       O      0.635097251141     0.226229616214     0.212017887477     0.125      
O2       O      0.364902748753     0.773770383763     0.212017887452     0.125      
O2       O      0.635097251247     0.773770383763     0.787982112548     0.125      
O2       O      0.364902748859     0.226229616214     0.787982112523     0.125      
O2       O      0.364934103479     0.713483573782     0.273218577183     0.125      
O2       O      0.635065896415     0.286516426180     0.273218577222     0.125      
O2       O      0.364934103586     0.286516426180     0.726781422778     0.125      
O2       O      0.635065896521     0.713483573782     0.726781422817     0.125      
O2       O      0.364903491655     0.773771948684     0.787982648209     0.125      
O2       O      0.635096508452     0.226228051339     0.787982648234     0.125      
O2       O      0.364903491548     0.226228051339     0.212017351766     0.125      
O2       O      0.635096508345     0.773771948684     0.212017351791     0.125      
C1       C      0.250000188287     0.249999648704     0.112403967630    -0.15       
C1       C      0.750000188287     0.250000351296     0.112403967630    -0.15       
C1       C      0.749999811613     0.750000351260     0.112403967630    -0.15       
C1       C      0.249999811613     0.749999648740     0.112403967630    -0.15       
C1       C      0.250000188387     0.750000351260     0.887596032370    -0.15       
C1       C      0.249999811713     0.250000351296     0.887596032370    -0.15       
C1       C      0.749999811713     0.249999648704     0.887596032370    -0.15       
C1       C      0.750000188387     0.749999648740     0.887596032370    -0.15       
C1       C      0.112427004594     0.243272648312     0.242258070562    -0.15       
C1       C      0.743273796070     0.112427526862     0.257742771985    -0.15       
C1       C      0.887572995300     0.756727351714     0.242258070533    -0.15       
C1       C      0.256726203829     0.887572473138     0.257742771996    -0.15       
C1       C      0.112427004700     0.756727351714     0.757741929467    -0.15       
C1       C      0.256726203930     0.112427526862     0.742257228015    -0.15       
C1       C      0.887572995406     0.243272648312     0.757741929438    -0.15       
C1       C      0.743273796171     0.887572473138     0.742257228004    -0.15       
C1       C      0.256727011982     0.112425681441     0.257741748580    -0.15       
C1       C      0.256727012084     0.887574318559     0.742258251431    -0.15       
C1       C      0.112426203707     0.243274135745     0.757742591024    -0.15       
C1       C      0.743272988018     0.112425681441     0.742258251420    -0.15       
C1       C      0.887573796399     0.756725864229     0.757742590995    -0.15       
C1       C      0.743272987916     0.887574318559     0.257741748569    -0.15       
C1       C      0.112426203601     0.756725864229     0.242257409005    -0.15       
C1       C      0.887573796293     0.243274135745     0.242257408976    -0.15       
C1       C      0.250000576371     0.750001058787     0.612403967624    -0.15       
C1       C      0.750000576371     0.749998941213     0.612403967624    -0.15       
C1       C      0.749999423672     0.249998941198     0.612403967624    -0.15       
C1       C      0.249999423672     0.250001058802     0.612403967624    -0.15       
C1       C      0.250000576328     0.249998941198     0.387596032376    -0.15       
C1       C      0.249999423629     0.749998941213     0.387596032376    -0.15       
C1       C      0.749999423629     0.750001058787     0.387596032376    -0.15       
C1       C      0.750000576328     0.250001058802     0.387596032376    -0.15       
C1       C      0.756727012084     0.612425681441     0.742258251431    -0.15       
C1       C      0.243272988018     0.387574318559     0.742258251420    -0.15       
C1       C      0.243272987916     0.612425681441     0.257741748569    -0.15       
C1       C      0.756727011982     0.387574318559     0.257741748580    -0.15       
C1       C      0.243273796171     0.612427526862     0.742257228004    -0.15       
C1       C      0.243273796070     0.387572473138     0.257742771985    -0.15       
C1       C      0.756726203829     0.612427526862     0.257742771996    -0.15       
C1       C      0.756726203930     0.387572473138     0.742257228015    -0.15       
C1       C      0.612426203707     0.256725864255     0.757742591024    -0.15       
C1       C      0.387573796399     0.743274135771     0.757742590995    -0.15       
C1       C      0.612426203601     0.743274135771     0.242257409005    -0.15       
C1       C      0.387573796293     0.256725864255     0.242257408976    -0.15       
C1       C      0.612427004594     0.256727351688     0.242258070562    -0.15       
C1       C      0.387572995300     0.743272648286     0.242258070533    -0.15       
C1       C      0.612427004700     0.743272648286     0.757741929467    -0.15       
C1       C      0.387572995406     0.256727351688     0.757741929438    -0.15       
C2       C      0.250000093148     0.249999828125     0.055073269907     0.15       
C2       C      0.750000093148     0.250000171875     0.055073269907     0.15       
C2       C      0.749999906802     0.750000171857     0.055073269907     0.15       
C2       C      0.249999906802     0.749999828143     0.055073269907     0.15       
C2       C      0.250000093198     0.750000171857     0.944926730093     0.15       
C2       C      0.249999906852     0.250000171875     0.944926730093     0.15       
C2       C      0.749999906852     0.249999828125     0.944926730093     0.15       
C2       C      0.750000093198     0.749999828143     0.944926730093     0.15       
C2       C      0.055085519215     0.242811669095     0.241788545678     0.15       
C2       C      0.742812032913     0.055086042415     0.258211648219     0.15       
C2       C      0.944914480679     0.757188330918     0.241788545663     0.15       
C2       C      0.257187966985     0.944913957585     0.258211648230     0.15       
C2       C      0.055085519321     0.757188330918     0.758211454337     0.15       
C2       C      0.257187967087     0.055086042415     0.741788351781     0.15       
C2       C      0.944914480785     0.242811669095     0.758211454322     0.15       
C2       C      0.742812033015     0.944913957585     0.741788351770     0.15       
C2       C      0.257188162854     0.055084198020     0.258211364194     0.15       
C2       C      0.257188162956     0.944915801980     0.741788635817     0.15       
C2       C      0.055084721219     0.242812200961     0.758211558012     0.15       
C2       C      0.742811837146     0.055084198020     0.741788635806     0.15       
C2       C      0.944915278887     0.757187799026     0.758211557998     0.15       
C2       C      0.742811837044     0.944915801980     0.258211364183     0.15       
C2       C      0.055084721113     0.757187799026     0.241788442002     0.15       
C2       C      0.944915278781     0.242812200961     0.241788441988     0.15       
C2       C      0.250000286279     0.750000525395     0.555073269904     0.15       
C2       C      0.750000286279     0.749999474605     0.555073269904     0.15       
C2       C      0.749999713742     0.249999474597     0.555073269904     0.15       
C2       C      0.249999713742     0.250000525403     0.555073269904     0.15       
C2       C      0.250000286258     0.249999474597     0.444926730096     0.15       
C2       C      0.249999713721     0.749999474605     0.444926730096     0.15       
C2       C      0.749999713721     0.750000525395     0.444926730096     0.15       
C2       C      0.750000286258     0.250000525403     0.444926730096     0.15       
C2       C      0.757188162956     0.555084198020     0.741788635817     0.15       
C2       C      0.242811837146     0.444915801980     0.741788635806     0.15       
C2       C      0.242811837044     0.555084198020     0.258211364183     0.15       
C2       C      0.757188162854     0.444915801980     0.258211364194     0.15       
C2       C      0.242812033015     0.555086042415     0.741788351770     0.15       
C2       C      0.242812032913     0.444913957585     0.258211648219     0.15       
C2       C      0.757187966985     0.555086042415     0.258211648230     0.15       
C2       C      0.757187967087     0.444913957585     0.741788351781     0.15       
C2       C      0.555084721219     0.257187799039     0.758211558012     0.15       
C2       C      0.444915278887     0.742812200974     0.758211557998     0.15       
C2       C      0.555084721113     0.742812200974     0.241788442002     0.15       
C2       C      0.444915278781     0.257187799039     0.241788441988     0.15       
C2       C      0.555085519215     0.257188330905     0.241788545678     0.15       
C2       C      0.444914480679     0.742811669082     0.241788545663     0.15       
C2       C      0.555085519321     0.742811669082     0.758211454337     0.15       
C2       C      0.444914480785     0.257188330905     0.758211454322     0.15       
C3       C      0.273725377086     0.210319155300     0.026808392193     1.275      
C3       C      0.773725377086     0.289680844700     0.026808392193     1.275      
C3       C      0.726274622890     0.789680844692     0.026808392184     1.275      
C3       C      0.226274622890     0.710319155308     0.026808392184     1.275      
C3       C      0.273725377110     0.789680844692     0.973191607816     1.275      
C3       C      0.226274622914     0.289680844700     0.973191607807     1.275      
C3       C      0.726274622914     0.210319155300     0.973191607807     1.275      
C3       C      0.773725377110     0.710319155308     0.973191607816     1.275      
C3       C      0.026812730052     0.275081898922     0.208684714671     1.275      
C3       C      0.710197898301     0.026811515186     0.225447822277     1.275      
C3       C      0.973187269843     0.724918101084     0.208684714664     1.275      
C3       C      0.289802101633     0.973188484814     0.225447822324     1.275      
C3       C      0.026812730157     0.724918101085     0.791315285336     1.275      
C3       C      0.289802101699     0.026811515186     0.774552177723     1.275      
C3       C      0.973187269948     0.275081898922     0.791315285329     1.275      
C3       C      0.710197898367     0.973188484814     0.774552177676     1.275      
C3       C      0.224918019904     0.026811364578     0.291315242098     1.275      
C3       C      0.224918020043     0.973188635422     0.708684757877     1.275      
C3       C      0.026810239636     0.210197981332     0.725447777180     1.275      
C3       C      0.775081980096     0.026811364578     0.708684757902     1.275      
C3       C      0.973189760470     0.789802018661     0.725447777173     1.275      
C3       C      0.775081979957     0.973188635422     0.291315242123     1.275      
C3       C      0.026810239530     0.789802018661     0.274552222827     1.275      
C3       C      0.973189760364     0.210197981332     0.274552222820     1.275      
C3       C      0.726274714052     0.789680677617     0.973191282046     1.275      
C3       C      0.226274714052     0.710319322383     0.973191282046     1.275      
C3       C      0.273725285973     0.210319322391     0.973191282055     1.275      
C3       C      0.773725285973     0.289680677609     0.973191282055     1.275      
C3       C      0.726274714027     0.210319322391     0.026808717945     1.275      
C3       C      0.773725285948     0.710319322383     0.026808717954     1.275      
C3       C      0.273725285948     0.789680677617     0.026808717954     1.275      
C3       C      0.226274714027     0.289680677609     0.026808717945     1.275      
C3       C      0.973188428972     0.724917843411     0.791315339275     1.275      
C3       C      0.289802193525     0.973190601255     0.774552321713     1.275      
C3       C      0.026811571134     0.275082156582     0.791315339281     1.275      
C3       C      0.710197806541     0.026809398745     0.774552321665     1.275      
C3       C      0.973188428866     0.275082156582     0.208684660719     1.275      
C3       C      0.710197806475     0.973190601255     0.225447678287     1.275      
C3       C      0.026811571028     0.724917843411     0.208684660725     1.275      
C3       C      0.289802193459     0.026809398745     0.225447678335     1.275      
C3       C      0.775082075383     0.973187063392     0.708684617271     1.275      
C3       C      0.775082075245     0.026812936608     0.291315382754     1.275      
C3       C      0.973189325599     0.789802276663     0.274552276477     1.275      
C3       C      0.224917924617     0.973187063392     0.291315382729     1.275      
C3       C      0.026810674295     0.210197723344     0.274552276485     1.275      
C3       C      0.224917924755     0.026812936608     0.708684617246     1.275      
C3       C      0.973189325705     0.210197723344     0.725447723515     1.275      
C3       C      0.026810674401     0.789802276663     0.725447723523     1.275      
C3       C      0.289680901483     0.726274925837     0.526808574707     1.275      
C3       C      0.789680901483     0.773725074163     0.526808574707     1.275      
C3       C      0.710319098527     0.273725074159     0.526808574725     1.275      
C3       C      0.210319098527     0.226274925841     0.526808574725     1.275      
C3       C      0.289680901473     0.273725074159     0.473191425275     1.275      
C3       C      0.210319098517     0.773725074163     0.473191425293     1.275      
C3       C      0.710319098517     0.726274925837     0.473191425293     1.275      
C3       C      0.789680901473     0.226274925841     0.473191425275     1.275      
C3       C      0.724918020043     0.526811364578     0.708684757877     1.275      
C3       C      0.275081980096     0.473188635422     0.708684757902     1.275      
C3       C      0.275081979957     0.526811364578     0.291315242123     1.275      
C3       C      0.724918019904     0.473188635422     0.291315242098     1.275      
C3       C      0.210197898367     0.526811515186     0.774552177676     1.275      
C3       C      0.210197898301     0.473188484814     0.225447822277     1.275      
C3       C      0.789802101633     0.526811515186     0.225447822324     1.275      
C3       C      0.789802101699     0.473188484814     0.774552177723     1.275      
C3       C      0.710319379043     0.273725588698     0.473191464590     1.275      
C3       C      0.210319379043     0.226274411302     0.473191464590     1.275      
C3       C      0.289680620947     0.726274411306     0.473191464572     1.275      
C3       C      0.789680620947     0.773725588694     0.473191464572     1.275      
C3       C      0.710319379053     0.726274411306     0.526808535428     1.275      
C3       C      0.789680620957     0.226274411302     0.526808535410     1.275      
C3       C      0.289680620957     0.273725588698     0.526808535410     1.275      
C3       C      0.210319379053     0.773725588694     0.526808535428     1.275      
C3       C      0.275082075245     0.473187063392     0.291315382754     1.275      
C3       C      0.724917924617     0.526812936608     0.291315382729     1.275      
C3       C      0.724917924755     0.473187063392     0.708684617246     1.275      
C3       C      0.275082075383     0.526812936608     0.708684617271     1.275      
C3       C      0.789802193459     0.473190601255     0.225447678334     1.275      
C3       C      0.789802193525     0.526809398745     0.774552321713     1.275      
C3       C      0.210197806541     0.473190601255     0.774552321666     1.275      
C3       C      0.210197806475     0.526809398745     0.225447678287     1.275      
C3       C      0.526810239636     0.289802018668     0.725447777180     1.275      
C3       C      0.473189760470     0.710197981339     0.725447777173     1.275      
C3       C      0.526810239530     0.710197981339     0.274552222827     1.275      
C3       C      0.473189760364     0.289802018668     0.274552222820     1.275      
C3       C      0.526812730052     0.224918101078     0.208684714671     1.275      
C3       C      0.473187269843     0.775081898915     0.208684714664     1.275      
C3       C      0.526812730157     0.775081898916     0.791315285336     1.275      
C3       C      0.473187269948     0.224918101078     0.791315285329     1.275      
C3       C      0.473189325599     0.710197723337     0.274552276477     1.275      
C3       C      0.526810674295     0.289802276656     0.274552276485     1.275      
C3       C      0.473189325705     0.289802276656     0.725447723515     1.275      
C3       C      0.526810674401     0.710197723337     0.725447723523     1.275      
C3       C      0.473188428972     0.775082156589     0.791315339275     1.275      
C3       C      0.526811571134     0.224917843418     0.791315339281     1.275      
C3       C      0.473188428866     0.224917843418     0.208684660719     1.275      
C3       C      0.526811571028     0.775082156588     0.208684660725     1.275      
H1       H      0.290527931777     0.182138382362     0.044017811693    -1.5        
H1       H      0.790527931777     0.317861617637     0.044017811693    -1.5        
H1       H      0.709472068184     0.817861617623     0.044017811679    -1.5        
H1       H      0.209472068184     0.682138382377     0.044017811679    -1.5        
H1       H      0.290527931816     0.817861617623     0.955982188321    -1.5        
H1       H      0.209472068223     0.317861617637     0.955982188307    -1.5        
H1       H      0.709472068223     0.182138382362     0.955982188307    -1.5        
H1       H      0.790527931816     0.682138382377     0.955982188321    -1.5        
H1       H      0.044024719266     0.298091859877     0.185299100787    -1.5        
H1       H      0.687159557757     0.044017990083     0.202086682876    -1.5        
H1       H      0.955975280629     0.701908140133     0.185299100776    -1.5        
H1       H      0.312840442203     0.955982009917     0.202086682948    -1.5        
H1       H      0.044024719371     0.701908140133     0.814700899224    -1.5        
H1       H      0.312840442243     0.044017990083     0.797913317124    -1.5        
H1       H      0.955975280734     0.298091859877     0.814700899213    -1.5        
H1       H      0.687159557797     0.955982009917     0.797913317052    -1.5        
H1       H      0.201908006359     0.044023322218     0.314700827612    -1.5        
H1       H      0.201908006524     0.955976677782     0.685299172338    -1.5        
H1       H      0.044016746743     0.187159693406     0.702086609534    -1.5        
H1       H      0.798091993641     0.044023322218     0.685299172388    -1.5        
H1       H      0.955983253364     0.812840306583     0.702086609522    -1.5        
H1       H      0.798091993476     0.955976677782     0.314700827662    -1.5        
H1       H      0.044016746636     0.812840306583     0.297913390478    -1.5        
H1       H      0.955983253257     0.187159693406     0.297913390466    -1.5        
H1       H      0.709472217533     0.817861343940     0.955981631545    -1.5        
H1       H      0.209472217533     0.682138656060     0.955981631545    -1.5        
H1       H      0.290527782507     0.182138656074     0.955981631559    -1.5        
H1       H      0.790527782507     0.317861343926     0.955981631559    -1.5        
H1       H      0.709472217493     0.182138656074     0.044018368441    -1.5        
H1       H      0.790527782467     0.682138656060     0.044018368455    -1.5        
H1       H      0.290527782467     0.817861343940     0.044018368455    -1.5        
H1       H      0.209472217493     0.317861343926     0.044018368441    -1.5        
H1       H      0.955976737152     0.701907701844     0.814701004792    -1.5        
H1       H      0.312840608565     0.955984359806     0.797913570090    -1.5        
H1       H      0.044023262952     0.298092298146     0.814701004803    -1.5        
H1       H      0.687159391475     0.044015640194     0.797913570018    -1.5        
H1       H      0.955976737048     0.298092298146     0.185298995197    -1.5        
H1       H      0.687159391435     0.955984359806     0.202086429910    -1.5        
H1       H      0.044023262848     0.701907701844     0.185298995208    -1.5        
H1       H      0.312840608525     0.044015640194     0.202086429982    -1.5        
H1       H      0.798092164267     0.955975340000     0.685298923287    -1.5        
H1       H      0.798092164102     0.044024660000     0.314701076763    -1.5        
H1       H      0.955983116360     0.812840744469     0.297913496465    -1.5        
H1       H      0.201907835733     0.955975340000     0.314701076713    -1.5        
H1       H      0.044016883533     0.187159255542     0.297913496477    -1.5        
H1       H      0.201907835898     0.044024660000     0.685298923237    -1.5        
H1       H      0.955983116467     0.187159255542     0.702086503523    -1.5        
H1       H      0.044016883640     0.812840744469     0.702086503535    -1.5        
H1       H      0.317861711129     0.709472564969     0.544018123065    -1.5        
H1       H      0.817861711129     0.790527435031     0.544018123065    -1.5        
H1       H      0.682138288887     0.290527435025     0.544018123096    -1.5        
H1       H      0.182138288887     0.209472564975     0.544018123096    -1.5        
H1       H      0.317861711113     0.290527435025     0.455981876904    -1.5        
H1       H      0.182138288871     0.790527435031     0.455981876935    -1.5        
H1       H      0.682138288871     0.709472564969     0.455981876935    -1.5        
H1       H      0.817861711113     0.209472564975     0.455981876904    -1.5        
H1       H      0.701908006524     0.544023322218     0.685299172338    -1.5        
H1       H      0.298091993641     0.455976677782     0.685299172388    -1.5        
H1       H      0.298091993476     0.544023322218     0.314700827662    -1.5        
H1       H      0.701908006359     0.455976677782     0.314700827612    -1.5        
H1       H      0.187159557797     0.544017990083     0.797913317052    -1.5        
H1       H      0.187159557757     0.455982009917     0.202086682875    -1.5        
H1       H      0.812840442203     0.544017990083     0.202086682948    -1.5        
H1       H      0.812840442243     0.455982009917     0.797913317125    -1.5        
H1       H      0.682138749342     0.290528278914     0.455981942967    -1.5        
H1       H      0.182138749342     0.209471721086     0.455981942967    -1.5        
H1       H      0.317861250641     0.709471721092     0.455981942936    -1.5        
H1       H      0.817861250641     0.790528278908     0.455981942936    -1.5        
H1       H      0.682138749359     0.709471721092     0.544018057064    -1.5        
H1       H      0.817861250658     0.209471721086     0.544018057033    -1.5        
H1       H      0.317861250658     0.290528278914     0.544018057033    -1.5        
H1       H      0.182138749359     0.790528278908     0.544018057064    -1.5        
H1       H      0.298092164102     0.455975340000     0.314701076763    -1.5        
H1       H      0.701907835733     0.544024660000     0.314701076713    -1.5        
H1       H      0.701907835898     0.455975340000     0.685298923237    -1.5        
H1       H      0.298092164267     0.544024660000     0.685298923287    -1.5        
H1       H      0.812840608525     0.455984359806     0.202086429982    -1.5        
H1       H      0.812840608565     0.544015640194     0.797913570090    -1.5        
H1       H      0.187159391475     0.455984359806     0.797913570018    -1.5        
H1       H      0.187159391435     0.544015640194     0.202086429910    -1.5        
H1       H      0.544016746743     0.312840306594     0.702086609534    -1.5        
H1       H      0.455983253364     0.687159693417     0.702086609522    -1.5        
H1       H      0.544016746636     0.687159693417     0.297913390478    -1.5        
H1       H      0.455983253257     0.312840306594     0.297913390466    -1.5        
H1       H      0.544024719266     0.201908140123     0.185299100787    -1.5        
H1       H      0.455975280629     0.798091859867     0.185299100776    -1.5        
H1       H      0.544024719371     0.798091859867     0.814700899224    -1.5        
H1       H      0.455975280734     0.201908140123     0.814700899213    -1.5        
H1       H      0.455983116360     0.687159255531     0.297913496465    -1.5        
H1       H      0.544016883533     0.312840744458     0.297913496477    -1.5        
H1       H      0.455983116467     0.312840744458     0.702086503523    -1.5        
H1       H      0.544016883640     0.687159255531     0.702086503535    -1.5        
H1       H      0.455976737152     0.798092298156     0.814701004792    -1.5        
H1       H      0.544023262952     0.201907701854     0.814701004803    -1.5        
H1       H      0.455976737048     0.201907701854     0.185298995197    -1.5        
H1       H      0.544023262848     0.798092298156     0.185298995208    -1.5        


